(written by ASE)

8 atoms
2 atom types

0.0      4.2371822220000004  xlo xhi
0.0      4.2371822220000004  ylo yhi
0.0      4.2371822220000004  zlo zhi

Masses

       1  24.30500
       2  15.99940

Atoms # charge

     1   1   0.0                       0                       0                       0
     2   1   0.0                       0      2.1185911110000002      2.1185911110000002
     3   1   0.0      2.1185911110000002                       0      2.1185911110000002
     4   1   0.0      2.1185911110000002      2.1185911110000002                       0
     5   2   0.0      2.1185911110000002                       0                       0
     6   2   0.0      2.1185911110000002      2.1185911110000002      2.1185911110000002
     7   2   0.0                       0                       0      2.1185911110000002
     8   2   0.0                       0      2.1185911110000002                       0
