LAMMPS data file via write_data, version 29 Aug 2024, timestep = 12, units = metal

8 atoms
2 atom types

0.018791618813378565 4.218390603186621 xlo xhi
0.018791618813378156 4.218390603186621 ylo yhi
0.01879161881337815 4.218390603186621 zlo zhi

Masses

1 24.305
2 15.9994

Atoms # charge

1 1 1.4 0.01879161881337857 0.01879161881337854 0.01879161881337854 0 0 0
2 1 1.4 0.018791618813378572 2.1185911109999993 2.1185911109999993 0 0 0
3 1 1.4 2.1185911109999997 0.01879161881337854 2.1185911109999993 0 0 0
4 1 1.4 2.1185911109999997 2.1185911109999993 0.01879161881337854 0 0 0
5 2 -1.4 2.1185911109999997 0.01879161881337854 0.01879161881337854 0 0 0
6 2 -1.4 2.1185911109999997 2.1185911109999993 2.1185911109999993 0 0 0
7 2 -1.4 0.01879161881337858 0.01879161881337854 2.1185911109999993 0 0 0
8 2 -1.4 0.018791618813378583 2.1185911109999993 0.01879161881337854 0 0 0

Velocities

1 0 0 0
2 0 0 0
3 0 0 0
4 0 0 0
5 0 0 0
6 0 0 0
7 0 0 0
8 0 0 0
